 
######################################################################
data_CsPbBr3-Pbnm

# phase info for CsPbBr3-Pbnm follows
_pd_phase_name  CsPbBr3-Pbnm
_cell_length_a  8.2055(7)
_cell_length_b  8.2510(7)
_cell_length_c  11.7525(9)
_cell_angle_alpha  90
_cell_angle_beta   90
_cell_angle_gamma  90
_cell_volume  795.68(18)
_exptl_crystal_density_diffrn  4.8402
_symmetry_cell_setting  orthorhombic
_symmetry_space_group_name_H-M  "P b n m"
loop_
    _space_group_symop_id
    _space_group_symop_operation_xyz
     1  x,y,z
     2  1/2-x,1/2+y,z
     3  1/2+x,1/2-y,1/2+z
     4  -x,-y,1/2+z
     5  -x,-y,-z
     6  1/2+x,1/2-y,-z
     7  1/2-x,1/2+y,1/2-z
     8  x,y,1/2-z

# ATOMIC COORDINATES AND DISPLACEMENT PARAMETERS
loop_ 
   _atom_site_label
   _atom_site_type_symbol
   _atom_site_fract_x
   _atom_site_fract_y
   _atom_site_fract_z
   _atom_site_occupancy
   _atom_site_adp_type
   _atom_site_U_iso_or_equiv
   _atom_site_symmetry_multiplicity
Cs1    Cs   0.99086     0.97271     0.25000     1.000      Uiso 0.053      4   
Pb2    Pb   0.50000     0.00000     0.00000     1.000      Uiso 0.014      4   
Br3    Br   0.03983     0.50351     0.25000     1.000      Uiso 0.035      4   
Br4    Br   0.79549     0.20042     0.02526     1.000      Uiso 0.034      8   

loop_  _atom_type_symbol _atom_type_number_in_cell
  Br   12
  Cs   4
  Pb   4

# Note that Z affects _cell_formula_sum and _weight
_cell_formula_units_Z  4
_chemical_formula_sum  "Br3 Cs Pb"
_chemical_formula_weight  579.82
